(written by ASE)

500 atoms
6 atom types

0.0      20.640558508013759  xlo xhi
0.0      20.425925322304867  ylo yhi
0.0      20.079497891031011  zlo zhi
 3.7503258407157869e-06  7.5852106153675143e-05     -5.1910254145411239  xy xz yz

Masses

     1      2.010999996910238 # C
     2      1.0079999997406976 # H
     3      1.006999996396779 # N
     4      10.24199996289454 # Nd
     5      3.998999995884349 # O
     6      2.059999991752747 # S

Pair Coeffs # lj/cut/omp

     1    0.066000    3.5000
     2    0.030000    2.5000
     3    0.170000    3.2500
     4    0.500000    4.5000
     5    0.210000    3.0000
     6    0.250000    3.6000

Atoms # atomic

     1   4      11.251002977557679      5.8879126848246059      14.558666013648699
     2   4      11.251016742783008      12.464483643938152      23.060685782036376
     3   4     0.38965683601247048      6.3470558254789093       10.52090804883319
     4   4     0.38960307076794781    -0.22959547506471636      2.0188815534047531
     5   4      5.9020577246308301      14.580188265138091      10.507190935757045
     6   4      5.9020241074199866      8.9632280987601547       2.032551805989129
     7   4      5.7385720887427949     -2.3452753285885919      14.572258983476646
     8   4      5.7385857060530059      3.2717332260221141      23.046959420527191
     9   2      1.0200360650340126      8.5934961820676161       16.37698790827908
    10   2      1.0200736551132754      9.7588705310098796       21.24225568285371
    11   2      10.620653748449513       3.641453294050045      8.7025310388241337
    12   2       10.62057615829602      2.4759440235278456      3.8372245840048094
    13   2      8.7891570466230693      9.5038351295285075      16.951457257390459
    14   2       8.789192673444532      8.8484969199750871      20.667724894527222
    15   2      2.8515027667736548      2.7310226916850069      8.1280116959797581
    16   2      2.8514271400155522      3.3863624300331336      4.4117852616081414
    17   2      7.4509446880292582      3.3760554308605228      15.854972780118093
    18   2       7.450983106800372     -2.4496550911228949       21.76426919056119
    19   2      4.1897251254289536      8.8589079578882153      9.2245286616235376
    20   2      4.1897067066490106      14.684453669054234      3.3152383663109122
    21   2       8.040709748132663      5.5247130754994282      12.479039370908723
    22   2      8.0406701585916149     0.59273014282113934     0.06070306685403238
    23   2      3.5999600653235113      6.7102817312704346      12.600458478069521
    24   2      3.6000196547921988      11.642025703616115      25.018764816104561
    25   2      4.5530438459212892   0.0038942011723234315      9.0281589271631368
    26   2      4.5530760607923808      6.1136146878341853      3.5115772375725172
    27   2      7.0875459674292305      12.231073850714258      16.051271957949353
    28   2      7.0875837527037122      6.1212915216098933      21.567953023049665
    29   2      3.8407511403946737      14.603918744308872      6.2121318251692754
    30   2      3.8407806917031402      8.9394506804515412      6.3276481217127394
    31   2      7.7998586730696537     -2.3690496096168685       18.86738039495452
    32   2      7.7998091217338406      3.2954637848926605      18.751843000286094
    33   2      5.6333830819356487      10.544705611908075      7.7705846962603404
    34   2      5.6333487500988175      12.998671672629273      4.7691506136675175
    35   2      6.0072767314906317      1.6901480813592411       17.30890382647523
    36   2      6.0072910633233843    -0.76375514331749839      20.310330723571958
    37   2      8.8630754111060419      12.601048440440211       9.141205389319655
    38   2      8.8630164209291156      10.942275079066846      3.3985292641043165
    39   2       2.777604402254676     -0.3662374786691851      15.938243459471733
    40   2      2.7776033925224755      1.2925647015760231      21.680976764084853
    41   2      2.4915147776307678      9.9691148562940519      15.438410530331957
    42   2      2.4914349426102005      8.3832587171667345      22.180891383735887
    43   2      9.1492050359203567      2.2658459332932535      9.6411516834021445
    44   2       9.149114870892344       3.851698479675973      2.8986394122378041
    45   2      3.8758342434322026      12.162398076165529       14.93206371654378
    46   2      3.8758454767400972      6.1900050806193896      22.687189155962876
    47   2       7.764845569968938    0.072542150453370965      10.147402179215197
    48   2      7.7647443367011313      6.0449191694074882      2.3923040300090554
    49   2      11.046019804634918      3.3543692718637526      19.192892701367068
    50   2      11.045977990234791      -2.427966133766903      18.426369660720734
    51   2     0.59463000887170536      8.8805250889256584      5.8866452799800228
    52   2      0.5946218231852054      14.662841460379299      6.6531132053703717
    53   2     0.93274306708463905      2.8656465781470137      21.355439986854865
    54   2     0.93268472777517797     -1.9392468620279644      16.263831761140722
    55   2      10.707946746388185      9.3692421259014971      3.7240763610924361
    56   2      10.707925085674376      14.174118060693059      8.8156706743004012
    57   2       2.938196698494576      4.1359348624972734      10.590534032509181
    58   2       2.938233208349458      1.9815048202013528      1.9492946122049515
    59   2      8.7023331150373551      8.0989455856765247      14.489021454414196
    60   2      8.7025266052014949      10.253383348656612      23.130272723021477
    61   2      4.3050055871028494      1.9561014455961898      10.022877634075442
    62   2      4.3050343197168912      4.1613616323875533      2.5169313769851782
    63   2      7.3355142263446638      10.278801171099973      15.056621208740319
    64   2      7.3357054937729149       8.073566210386133      22.562593226777835
    65   2      10.181207797569112      11.748093373326729      17.279436014986551
    66   2      10.181291922624119      6.6042826288508287      20.339822743806494
    67   2      1.4593920160051119     0.48681230094116784       7.800145233114117
    68   2      1.4593078908021631      5.6305710644231208      4.7396657790210899
    69   2      10.295719881040498      10.698316988387605      18.713625406407083
    70   2      10.295779839099472      7.6539729903176115      18.905604640753527
    71   2      1.3448899324574659      1.5364851823159547      6.3659135686088337
    72   2      1.3447899743225626      4.5808709182769745      6.1738818181469721
    73   2     0.70339652259871221      11.092274360883593      16.495327526917446
    74   2     0.70349319749021322      7.2601006780484196      21.123877896583899
    75   2      10.937213290937637      1.1426884926889642      8.5842249023026742
    76   2      10.937126615885283      4.9747082197561374      3.9555807369821805
    77   2     0.96948907398500961      10.599727830317891      18.194482607516157
    78   2      0.9695406460569147      7.7526847597603616      19.424689053089701
    79   2      10.671120739460466      1.6352062043894524      6.8850126423981948
    80   2      10.671039167346093      4.4821514281235419      5.6547855571396868
    81   2      6.9758087690192738      3.2932170976038329      12.001360933757621
    82   2      6.9757811376885011      2.8242186353197525     0.53837292157198102
    83   2      4.6648810444178759      8.9417699884542454      13.078125066534181
    84   2      4.6649186757649588      9.4105171065682338      24.541141820811557
    85   2      5.5969992599236331      4.3936466040996551      12.242183998809111
    86   2        5.59696064681492      1.7238167235791642     0.29757006219362298
    87   2      6.0437005535260884      7.8412972152804237      12.837313314940317
    88   2      6.0437491666006613      10.510976197613482      24.781915861309365
    89   2      5.1815225191663812      3.5450012276382248      14.428563018329829
    90   2      5.1815652756623285     -2.6185787530825571      23.190680256328296
    91   2      6.4591472942452919      8.6899271503260103      10.650910598154065
    92   2      6.4591345377850171      14.853408749033912      1.8888237077650902
    93   2      6.2342216949449485      2.1869430550646807      13.988956417695428
    94   2      6.2342860998707428     -1.2605089644732859      23.630275907404062
    95   2      5.4064981184752172       10.04800489225938       11.09052132665798
    96   2      5.4064637136251816        13.4953425531825      1.4492594746337628
    97   2      2.8709184197826256    -0.39169110068167939      5.5184638554945336
    98   2      2.8710314869496303      6.5091256766848327      7.0212923747317353
    99   2      8.7696613935317167      12.626539672404165      19.560952046638807
   100   2       8.769528326457797      5.7257929166088797      18.058179177947757
   101   2      4.5074975399063106    -0.80204117199685321      4.9742892645342272
   102   2      4.5075923668157918      6.9194970197013594      7.5654562893039028
   103   2      7.1331022734966982      13.036877359878552      20.105185345664491
   104   2      7.1329474467015332       5.315458113169357      17.514084291367794
   105   2      5.5700804026679691     0.40578174464850353      6.7539788959563891
   106   2      5.5701995040285226       5.711728983584309      5.7857443645310953
   107   2      6.0704394106845934      11.829154889224689      18.325455582026841
   108   2      6.0703903095584426      6.5232060447327198      19.293843075504203
   109   2      4.0609305027641849      1.3402051354536955      6.7519294724932468
   110   2      4.0610494039399496      4.7772430902176435      5.7878056023528233
   111   2      7.5795893105185659      10.894678982242739       18.32746326760337
   112   2      7.5795604095709201      7.4576610552588622      19.291734443028709
   113   2      7.7951508950682857      9.9123446078187722      6.3901609774294519
   114   2      7.7951409369610714      13.631032199024474       6.149567701934143
   115   2      3.8454589183495016       2.322489516088722      18.689323417436601
   116   2      3.8455088764653795     -1.3961058850311285      18.929915699263098
   117   2      7.6799930444588771      8.9177450996173402       7.863358990368817
   118   2      7.6799987875580111      14.625602378622874      4.6763638502610441
   119   2      3.9606367689651956      3.3170673909494957       17.21613106120305
   120   2      3.9607110258324298     -2.3907229240764352      20.403099446296014
   121   2       9.381004865988313      10.176339725989552      8.9604390560814835
   122   2      9.3809769660118132      13.366978022329386      3.5792723753744813
   123   2      2.2596349473766488      2.0584810204685713      16.119011856744347
   124   2      2.2597128474608361      -1.132161939005794      21.500249094126492
   125   2      9.7624824564894634      10.816555616247452      7.3431646089925779
   126   2      9.7624493755287869      12.726769768485548      5.1965575010673941
   127   2      1.8781573568775378      1.4182337121895492      17.736289896596631
   128   2      1.8781804379523581    -0.49193411578997803      19.882968096471789
   129   2      11.439720855504277      5.5079259750070433     0.16102126500299113
   130   2      11.439689051186658     0.60953040485327725      12.378693241983157
   131   2     0.20097895787783884      6.7270065309000691      24.918432782069541
   132   2     0.20090076218679584      11.625309910975718      12.700761798865548
   133   2      2.3037473804412993      3.2559841430584946      24.139906982578896
   134   2      2.3036704145338369      -2.329456000226684      13.479428594684917
   135   2      9.3369224332029077      8.9790466681033489     0.93971088174735784
   136   2      9.3369893989136763      14.564358616907382       11.60007024791614
   137   2      1.0357743095906993      6.3725145551205911      2.3510300804898474
   138   2      1.0358355971185489    -0.25503424294519411      10.188710680374008
   139   2      10.604815503880083      5.8624055669600885      22.728482674847427
   140   2      10.604764216244375      12.489886407428859      14.890736639749781
   141   2      11.311923613440671      7.4080373848721903      1.8224834973517183
   142   2      11.311996293313928     -1.2905794479934392      10.717272604154889
   143   2     0.32865620000259554       4.826855447134669      23.257013281398933
   144   2     0.32865352012492527       13.52538987458497       14.36222723206898
   145   2      1.3286133051338833      9.0677389328002906      1.5018831028409052
   146   2      1.3287285270058804       14.47567790650451      11.037924653632032
   147   2      10.311946508448834      3.1671863108373763      23.577702273267306
   148   2      10.312001286418363     -2.2407927952238031      14.041560276232808
   149   2      2.6501031304438425      7.8751885613872998      1.4738892044880183
   150   2      2.6501767764412985     -1.7576195501841239      11.065957370771034
   151   2       8.990486683202402      4.3598108317622559      23.605732252724309
   152   2      8.9904930370126692      13.992573154250186      14.013542006997502
   153   2      10.257266304612978      2.8492511263575908      16.947041779381475
   154   2      10.257321490277617     -1.9228400932689855      20.672234850460804
   155   2      1.3833535088197568      9.3856535543006192      8.1324472785982529
   156   2      1.3833483231614012      14.157723140583226      4.4072598641787231
   157   2       7.694825638602639    -0.30905035714444612      16.740299108688362
   158   2       7.694872156211634       1.235452706963271      20.878932329269521
   159   2      3.9457841748110702      12.543947317094183       8.339178100650928
   160   2      3.9457676571850908      10.999405114252452      4.2005366241313729
   161   2      11.373517265453163     0.52085975934290607      17.741318571082481
   162   2      11.373560529422226     0.40559429376305806      19.877943321564626
   163   2     0.26710254795426325      11.714058833944176      7.3381529815049946
   164   2     0.26706928396413709      11.829347996834464      5.2015127895883593
   165   2      11.555964620674064     0.86256453160409752      15.992132234928771
   166   2      11.556013174240981    0.063873504583453103      21.627156388186613
   167   2    0.084625192758671641      11.372340149057431      9.0873568230969628
   168   2    0.084636639185468307      12.171052809409893      3.4523270130106236
   169   2      9.7493535362845805    -0.55723580159976993      15.387329484525596
   170   2      9.7493642586135021      1.4836253135896389      22.231954359980268
   171   2      1.8912662771607223      12.792097215581087      9.6921708869270944
   172   2      1.8912555548360499      10.751245885074356      2.8475480754455185
   173   2      10.096395818235248     -1.3615181376295511      16.933253687644545
   174   2      10.096431976738108      2.2879384557680913      20.686076487004915
   175   2      1.5442139952861533      13.596410434450286      8.1462940784465676
   176   2      1.5441778367178944      9.9469837302834776      4.3934264836190149
   177   2      4.4958276432802826      9.2295718724578393      17.360279044864225
   178   2      4.4956620768164948       9.122768846485636       20.25892812442369
   179   2      7.1449721701334301      3.0053250874709065      7.7191981641836831
   180   2      7.1449577366079167      3.1121888855321473      4.8205516840561744
   181   2      3.6266343953688542      7.9813536434818593      15.332356764884723
   182   2      3.6265153245867849      10.371162933387842      22.286747044341382
   183   2      8.0141154180407774      4.2536061524946582      9.7471132587130977
   184   2      8.0141144887596631      1.8638679545365655      2.7926766551830071
   185   2      3.1713564540081829      6.9948734953446294      16.745794348947609
   186   2      3.1713632656866126      11.357617497588615      20.873141917742579
   187   2      8.4693133592832286      5.2401028124255067      8.3335973973114932
   188   2      8.4693365476365656        0.87739588493581      4.2062678690455844
   189   2      7.2164447975772061      6.7729749146805496      15.681676806933908
   190   2      7.2164349223397144      11.579254513973934      21.937416908386229
   191   2      4.4242450157750168      5.4618164777240219      9.3977679138959527
   192   2      4.4242548910697499     0.65563266128429254      3.1420582368572774
   193   2      5.0813458931954596      5.5449088349594291      16.484568066910171
   194   2      5.0814338265135053      12.807444215169291      21.134384433140962
   195   2      6.5592439200387114      6.6899716899658905      8.5947932550579775
   196   2      6.5592859869024149    -0.57250605252790765      3.9450912472393513
   197   2      4.8706333201733916      6.0064173608501621      14.773541122002353
   198   2      4.8706563995109322      12.346022269201216      22.845389397495303
   199   2       6.770026493048209      6.2285064307443179      10.305808886385483
   200   2      6.7700434138796792    -0.11107019392875241      2.2340687775234267
   201   1      2.0879814888903501       9.820394807357987      13.304652194994331
   202   1      2.0879382313452863      8.5320004886070002      24.314645299989397
   203   1      9.5526783246585669      2.4145247795321509      11.774911547622073
   204   1      9.5525815821382363      3.7029489875294441     0.76487364737452246
   205   1      2.6153933088394874      10.401179135008091      14.449535049715266
   206   1      2.6153264113928634      7.9512474624370819      23.169757234875352
   207   1      9.0253165046693447      1.8337564284784909       10.63000140274953
   208   1      9.0252134020949022      4.2837117983798274      1.9097637764309954
   209   1      3.3414930303267019      11.581944027913085       14.18285866954777
   210   1      3.3414866898448223      6.7704906649696541      23.436392249142113
   211   1      8.2991767831082406      0.6530018554433995      10.896628859564991
   212   1       8.299083123571096      5.4644474976883055      1.6430834314682334
   213   1      3.3473109924960207      11.890018818767871      12.831865239861314
   214   1      3.3473287276965498      6.4623921755150535      24.787401102366079
   215   1      8.2933388209557375     0.34489358259660408      12.247635666728176
   216   1      8.2932310857679479      5.7725495799073938     0.29210599628072581
   217   1      1.3360110802851797      8.5516943617165069       13.12961816141434
   218   1      1.3359686399479882      9.8006913157305551      24.489679576022205
   219   1      10.304648733267983      3.6832350098563049      11.949947645175158
   220   1      10.304581173550311      2.4342560964294755      0.5898491559783845
   221   1      4.0168699823300296      12.976511248565334      12.094895121521857
   222   1      4.0168618497274524      10.566946734608695     0.44485187360149636
   223   1      7.6237598310773969    -0.74159265527935514      12.984576431050279
   224   1      7.6237379637560716      1.6680027415189091      24.634667073639736
   225   1     0.98477889516708594      4.6683531645776224      18.505203162811032
   226   1     0.98474889966305179     -3.7419493320140016      19.114048856172584
   227   1       10.65585091826344      7.5665103133756881       6.574287423943642
   228   1      10.655830913799239      15.976849884730438      5.9654597712338369
   229   1     0.38373015659975696      3.7879874330563417      19.391165230695218
   230   1     0.38371763827834343     -2.8615484568948522      18.228116457042859
   231   1      11.256909656873066      8.4469012709976941      5.6883511173287644
   232   1      11.256912175230488      15.096484020390269        6.85141999554462
   233   1      1.1796218707309523      3.5339130560075187      20.527194464211931
   234   1      1.1795959241219958     -2.6074917611070476      17.092070869776244
   235   1      10.461047942727093      8.7009777120162966       4.552312099083375
   236   1       10.46103388935507      14.842390249844861      7.9874475422361719
   237   1      2.3851218716697509      4.2210076440382993      20.478304471009139
   238   1       2.385075923161323     -3.2945943362276413      17.140945316870738
   239   1      9.2555379417397159      8.0138795312232407      4.6011706742803771
   240   1      9.2555438903115022      15.529483040283887      7.9385710311839164
   241   1     0.48110694758925077      5.1318801460823815      17.201861423419466
   242   1      0.4811208472590639     -4.2054370634952178      20.417400396240787
   243   1      11.159512865849768      7.1030029012373852      7.8776332912967417
   244   1      11.159508966249767      16.440372626990637      4.6621360563466929
   245   1      3.5012533123558578      4.0942595149000809       21.42685631327814
   246   1       3.501234482470541     -3.1678150357057389      16.192386458422856
   247   1      8.1393765010473231      8.1406492937032233      3.6526131753209015
   248   1      8.1393853309832593      15.402696019052406      8.8871180409760271
   249   1      2.6591696832923288      3.3352409970060073      12.594502293598159
   250   1      2.6592681116056998     -2.4088164362953899       25.02478992018375
   251   1      8.9814101301762435      8.8996379223719853       12.48501199054474
   252   1      8.9814217019410094      14.643694820478416    0.054775351176929533
   253   1      3.1372976846139382         3.3308833707668       11.29154730648396
   254   1      3.1373022222000695      2.7865603958856955      1.2482611582356715
   255   1      8.5032621288503893      8.9039857639307254      13.787964913716513
   256   1      8.5034375913508846      9.4483277729744817      23.831306177021428
   257   1      3.8500270893320576      2.1563958151403058      10.987999266252009
   258   1      3.8500528174845119      3.9610575786988664      1.5518090763402042
   259   1      7.7905127241217391      10.078485168215199      14.091505233269562
   260   1      7.7906769960306042      8.2738563514470584      23.527733032830398
   261   1      3.9152386400569332      1.2825531087649786      12.062128243966836
   262   1      3.9152512667489523      4.8349121193214515     0.47767217792045391
   263   1      7.7253311733968673      10.952327874587212      13.017376255508729
   264   1      7.7254085467323623      7.3999961540957244      24.601848298019053
   265   1      1.8212507945109733       4.350931032541034      13.245915272696882
   266   1      1.8212970004165541     -3.4244789965926201      24.373395487813543
   267   1      9.8193790189998964      7.8839731129332611      11.833624772653982
   268   1      9.8193428131428941      15.659386734829193     0.70617597554310629
   269   1      4.5555085958814923   -0.052468486219235284      12.129503130194728
   270   1      4.5554713109356166      6.1699629268771021     0.41030151986641122
   271   1      7.0850812175216866      12.287377294826959      12.949966358465657
   272   1      7.0851385025584381      6.0649747005936288      24.669225148069064
   273   1      10.490448227926279      10.755927591822443      17.631536544302399
   274   1      10.490511492194372      7.5964272438681295      19.987675935377172
   275   1      1.1501815855613204      1.4789590482596022      7.4479895884195955
   276   1      1.1500883212319084      4.6384264494058192      5.0918125874504154
   277   1     0.33328770640831007      10.451984547386649      17.313378023347948
   278   1      0.3333720136645042      7.9003514345999255      20.305820279469632
   279   1      11.307312107081497      1.7829432954025044      7.7661465806297691
   280   1      11.307237799715235      4.3344672478884085      4.7736404180848835
   281   1      10.644346346372025      8.7037119068384641      16.552490796132009
   282   1      10.644393373758801      9.6486310461908662      21.066728932249102
   283   1     0.99633346709876081      3.5312082152322772      8.5270219590672465
   284   1     0.99626643965899098      2.5862030777111036       4.012755462540273
   285   1      6.4988999361762927      3.9844478011775051       12.71262453369325
   286   1      6.4989378586408098     -3.0580451870909422      24.906610572394936
   287   1      5.1418098772819203      8.2505155875668166      12.366876907987038
   288   1      5.1417719547577851      15.292798969552887     0.17286709521566071
   289   1      6.1838819253172668      3.2808898002898541      14.060361635327462
   290   1      6.1839158695238519     -2.3544696112002557      23.558888349612033
   291   1      5.4567978881134307      8.9540462983828508      11.019123829796866
   292   1      5.4567739439340235      14.589287758496944      1.5206233352062652
   293   1      7.9141025917605869      4.8067603391069724      14.384994562003719
   294   1       7.914125203072194     -3.8803503170301212      23.234248052085135
   295   1      3.7265472217018734      7.4282128343266516      10.694508943741681
   296   1      3.7265346103348933      16.115123668862942      1.8452337435483366
   297   1      3.8790189152599157    -0.67430239760477018      5.8619070820544605
   298   1      3.8791209914679188      6.7917681688676952      6.6778424634015208
   299   1      7.7615508980967238      12.909176195430197       19.21753458137886
   300   1      7.7614488220071109      5.4431617378978743      18.401672355939528
   301   1      4.4736205600094303     0.33599601076051738      6.8616042897207317
   302   1       4.473719346706468      5.7814814777678798      5.6781357112815787
   303   1      7.1669292533113671      11.898903548351756      18.217812147641428
   304   1      7.1668704668086471      6.4534324523935105      19.401406398103727
   305   1      4.0344620305472203     -1.6430558663924417      7.9630704297077637
   306   1      4.0344778761844937         7.7605313879989      4.5766807030818413
   307   1      7.6061377828496726      13.877986308337503      17.116393402200803
   308   1      7.6061319372672651      4.4743810133699942      20.502820203568994
   309   1      7.7477225852973035      9.9491767431459692      7.4896469387493356
   310   1      7.7477192467342029      13.594168656155775      5.0500854788385654
   311   1      3.8929072281119903      2.2856378113939617      17.589833328139857
   312   1      3.8929605666900393     -1.3592835448695442      20.029399451102954
   313   1      8.9641535849306226      10.700853412207447      8.0873180785241505
   314   1      8.9641282470852683      12.842462364250807      4.4524044161676786
   315   1       2.676476228449117      1.5339652702786786       16.99214261899969
   316   1      2.6765215663768527    -0.60763443226702574      20.627109332685059
   317   1       7.026094272424201        11.9448720628207      8.4459857823023441
   318   1      7.0260475596175045      11.598493065311265      4.0937529766608218
   319   1      4.6145555410168599     0.28997956647462975      16.633512525131238
   320   1       4.614572253844786     0.63640748740075359      20.985755650684254
   321   1     0.64057310863141148      6.9798220490647411      1.5241736458776391
   322   1     0.64061679805974736    -0.86234937026834968        11.0155564785099
   323   1      11.000046704790792      5.2550944802492454      23.555307691392507
   324   1      11.000023015351756      13.097205127510978      14.063922259573667
   325   1      1.6364825936747176      8.0906424729122257      1.1083593183658556
   326   1      1.6365673130944287     -1.9731293466680659      11.431417209923191
   327   1      10.004107219857385      4.1443105959798689      23.971191046911837
   328   1      10.004122500315038      14.208016521926289      13.648057935320313
   329   1      0.9863174297259103      1.7066121226118254      24.283668139415706
   330   1     0.98627036510863997    -0.78012588497869617      13.335580817294559
   331   1      10.654352383736551      10.528361050819587     0.79583536629902607
   332   1      10.654349448300826      13.015013060244657      11.743894328056296
   333   1      10.831705844381412     0.72317884186827597      16.800111670904677
   334   1       10.83176195052906     0.20328098769821773      20.819173516893297
   335   1     0.80889396905556754      11.511735623474822      8.2793794510788175
   336   1     0.80888786288686076      12.031657174950899      4.2603021635943605
   337   1      9.8341952180275491    -0.40474133102064558      16.472949078297656
   338   1      9.8342225768936053      1.3311483296532436      21.146348418587014
   339   1      1.8064245954410261      12.639620250394218      8.6065652057838964
   340   1      1.8064072365644401      10.903742438374994      3.9331581447696302
   341   1      8.6603163725596808      1.4783854459020511      17.090111693983154
   342   1      8.6604014223051369    -0.55196993198840094      20.529150264577826
   343   1      2.9802734408625216      10.756531083415251      7.9893696433330055
   344   1       2.980258391163439      12.786848851357552      4.5503640194423873
   345   1      4.0166256850923272      7.4428234631259409      16.212138227229573
   346   1      4.0165240347650624      10.909613221312769      21.406906671308494
   347   1      7.6241141282454539      4.7921152346960447      8.8672864657335886
   348   1      7.6241357786552753      1.3254073467428413      3.6725659515832576
   349   1      6.1578664978250615      8.2449295118277597      16.684304143750055
   350   1       6.157813222237893      10.107269726334648      20.934888601338464
   351   1      5.4828533155947659       3.989873194046456      8.3951838437106865
   352   1      5.4828265912306842      2.1276091930367138      4.1446256827124195
   353   1      5.0605749086991576      6.3967863781411385      15.781239447041935