LAMMPS data file via write_data, version 10 Sep 2025, timestep = 50000, units = metal

720 atoms
2 atom types

-21.71568562841786 21.71568562841786 xlo xhi
-8.631027651355247 8.631027651355247 ylo yhi
-8.458627976287211 8.458627976287211 zlo zhi

Atom Type Labels

1 Si
2 O

Masses

1 28.0855
2 15.9994

Atoms # full

448 0 2 0 -16.570198474065336 -6.198428201905919 -3.668122848782998 0 0 1
374 0 2 0 -18.425846851786353 -6.524465109206928 -7.745976332975128 0 1 0
214 0 1 0 -19.909164071498356 -6.533269977252345 -7.271999103793609 1 0 -1
677 0 2 0 -16.436573182886335 -5.5968265380161615 -6.234922387345732 0 -1 -1
387 0 2 0 -16.230423899304956 -8.05365626336004 -5.457776580411419 0 0 0
266 0 2 0 -17.979221828950845 -3.9462185422273155 -7.745287392728336 1 -1 -1
2 0 1 0 -17.239184720746092 -5.428541231593551 -7.569406635501428 0 1 1
713 0 2 0 -20.086026306764015 -5.900055711236612 -5.8643565769501835 1 1 1
705 0 2 0 -21.007744514467234 -6.710654607417008 -8.34831107747384 1 1 0
128 0 1 0 -15.861105681229393 -6.576650912093004 -5.088334291811629 1 0 1
548 0 2 0 -16.537078954297396 -2.803088542035682 -5.424226315142353 0 1 1
392 0 2 0 -21.32927428342382 -3.296268201440557 -3.723340836170932 0 0 0
715 0 2 0 -20.502869120484437 -3.1143837271907824 -8.112835820847671 1 2 0
704 0 2 0 -21.540608272567663 -5.876458352088841 -3.3056012686126692 1 0 1
235 0 1 0 -21.568757310205328 -7.417472039397817 -3.4182255413752554 1 0 -1
691 0 2 0 -14.231595374358356 -6.359993546516988 -4.762637111114786 0 0 0
257 0 2 0 -11.927783239260387 -4.651509151915816 -6.983260947517403 1 1 1
333 0 2 0 -11.986486813395405 -6.89079762579634 -5.86655988323839 0 1 1
172 0 1 0 -10.969100730646126 -5.907458037686901 -6.623263281595636 0 0 0
239 0 1 0 -12.875108806635888 -7.224710138321983 -4.601168824694263 1 1 1
535 0 2 0 -13.77846613338178 -3.3667488200633127 -5.550261979232085 0 0 0
327 0 2 0 -10.458634189913282 -6.715154234294294 -7.867980921499379 -1 -2 0
262 0 2 0 -11.859191070843094 -6.921043193206916 -3.296269510330905 0 -1 0
73 0 1 0 -12.328111031489138 -3.295902791160235 -6.317793279127524 0 0 -1
614 0 2 0 -9.767266507746045 -5.356726474643575 -5.679405154502633 0 0 0
134 0 1 0 -10.425733313477089 -7.473843953694895 -2.8322962443283135 1 0 1
528 0 2 0 -9.838659670163239 -8.220054376073056 -4.154578754949331 0 1 1
148 0 1 0 -8.118491903064179 -5.479256434658029 -5.6150777986553075 0 0 1
70 0 1 0 -6.72119708535344 -8.085116284641195 -6.388692664748521 -1 0 0
427 0 2 0 -7.428041780568712 -6.6563062835422295 -6.516465807028676 0 1 -1
474 0 2 0 -5.138298721717447 -7.892973493817532 -5.86342910833593 -1 0 1
377 0 2 0 -7.68281174252977 -4.02645891217636 -6.271492014510471 0 2 0
570 0 2 0 -7.510951449412483 -5.547850392364449 -4.167563431237029 0 -2 0
26 0 1 0 -4.043189895835113 8.617895660012437 -4.931939247437704 0 0 0
450 0 2 0 -4.333404577635278 -8.40716532258593 -3.3853899015377182 0 1 0
249 0 2 0 -6.825383921862704 8.245546841636418 -7.696648617766241 0 0 0
373 0 2 0 -7.474382785017744 8.335697916981019 -5.176444861079457 0 0 0
286 0 2 0 -3.074430765725115 -4.702252408522785 -3.8018022468191237 0 0 0
681 0 2 0 -2.4344138063462033 -8.187674916682637 -5.185473220145491 0 1 0
662 0 2 0 -0.3357493247855494 -7.454905098145519 -3.5661161280092823 0 0 1
608 0 2 0 -1.419170477951507 -3.7635454208216395 -5.937517555120081 1 1 2
160 0 1 0 -2.589540290844784 -3.4320603831506027 -4.754282758795908 1 1 0
51 0 1 0 -1.0774964132089124 -3.408586091271564 -7.43229769271312 1 1 0
519 0 2 0 0.06353849221430607 -8.538056626317324 -5.986200900442074 0 0 1
4 0 1 0 -0.883132423957246 -8.520785440892174 -4.681664643837904 0 1 -1
300 0 2 0 9.93114681885335 -7.376430610338398 -6.3129924229986845 0 1 0
237 0 1 0 10.947457001285066 -4.062884050652513 -3.754685269523181 0 1 0
663 0 2 0 12.314613593320267 -4.813528614373293 -4.0615193011308355 0 1 0
529 0 2 0 12.477487342599161 -7.4140872674699345 -4.235293726250618 0 1 0
204 0 1 0 13.196736070794302 -6.027480600373984 -4.630127822898739 0 0 0
533 0 2 0 13.339531734445963 -5.951871764546783 -6.204385437754453 -1 1 0
107 0 1 0 14.565274017566459 -5.898571991392275 -7.219759249771906 0 2 0
258 0 2 0 14.872221716143379 -7.4431697164878 -7.581528025120582 0 0 0
269 0 2 0 14.567682289585584 -5.798490146857388 -3.786266471782894 -1 -1 0
224 0 1 0 15.006259921735698 -4.296777537357529 -3.606797761456651 -1 1 -1
478 0 2 0 14.792833216510736 -3.329407856537503 -4.845948287995309 0 1 0
512 0 2 0 10.132784530019059 -8.124544141863423 -3.688973447104811 0 1 0
227 0 1 0 11.577431390800776 -7.9200953553758255 -2.90866715814032 0 -1 1
431 0 2 0 10.596655755295778 -3.5905289957586337 -5.295697353932478 0 1 0
75 0 1 0 10.181123604193594 -8.444300414626184 -5.2305861609478175 0 0 0
607 0 2 0 9.96552716771307 -4.864698430645346 -2.8172784509413553 0 0 1
489 0 2 0 15.89153116369095 -5.1761881279540045 -6.607428592958334 -1 1 1
61 0 1 0 17.25839376432282 -5.417621772246933 -5.87211287180127 0 0 1
416 0 2 0 17.290670806805096 -5.025446018812801 -4.276227136792455 -1 1 0
497 0 2 0 17.78841696520029 -6.982793751567415 -6.179991325546457 0 1 0
36 0 1 0 21.114123654534758 -4.543349159685118 -3.840133648674449 -1 0 0
600 0 2 0 18.31034365039521 -4.482677118706835 -6.5521827374932355 0 0 2
156 0 1 0 18.551217576788268 -7.695215549015799 -7.424455944384586 0 1 0
386 0 2 0 20.53286563535432 -4.549917947099873 -5.3594547403597845 -1 1 0
174 0 1 0 19.582692068317463 -3.605661930351138 -6.275654517088481 0 1 0
309 0 2 0 20.417844896417407 -3.3635888883889713 -7.6454299379228035 -1 0 0
398 0 2 0 21.530266299121145 -7.926487671034859 -4.985957150887068 -1 1 1
421 0 2 0 19.992687582082247 -8.451644097990654 -7.096367797596102 -1 0 0
104 0 1 0 18.0591664246275 -4.138508562534065 -3.0597107827134913 0 0 -1
301 0 2 0 18.716906716250882 -6.615897823949421 8.40732239870944 0 2 0
302 0 2 0 -18.747183427372534 -2.5256718630102855 -3.7064489275052903 0 0 0
69 0 1 0 -19.046831687428586 -2.699925710498908 -7.71630906658344 0 1 0
549 0 2 0 -18.859453292512836 -1.9635191696506746 -6.277234360557937 0 1 0
207 0 1 0 -17.85462061894387 -1.9714156594688435 -4.977624109186978 1 0 0
441 0 2 0 -17.307200380435745 -0.48134100924266754 -4.603904594671123 1 1 0
10 0 1 0 -15.768533256442316 0.0765531450769057 -4.334985289676033 1 -1 1
260 0 2 0 -20.078035383158678 0.4274270073572968 -7.921325767734352 0 -1 1
53 0 1 0 -20.20174996110055 -2.2034438859610503 -3.1790714857301587 0 0 0
357 0 2 0 -17.49591844370442 0.3559514508967734 -7.618097849946994 0 -1 0
483 0 2 0 -20.517349964259395 -0.7650117079412082 -3.978163997100264 0 0 1
591 0 2 0 -20.536283797123396 2.7113411614389307 -6.567718096198678 -1 0 0
225 0 1 0 -21.10002156008055 1.4145601662592764 -7.211533726185601 0 0 0
695 0 2 0 -15.285045442629059 1.1161010187142661 -5.439613681288037 0 0 0
29 0 1 0 -15.018225242977682 -2.3449966941375227 -5.600948802162039 1 0 1
420 0 2 0 -14.865564430686797 -1.6108174457995297 -7.050605988100958 1 -1 1
564 0 2 0 -14.83077797158121 -1.2705384180695596 -4.40765640236979 1 1 -1
117 0 1 0 -14.463826096166713 2.4516364464807783 -5.783579691078253 0 0 0
265 0 2 0 -12.442443146509108 -2.1446838563157353 -7.4484004854532415 0 -1 -1
149 0 1 0 -13.62535429174674 -1.2452570437383166 -8.046174192372611 0 -1 1
433 0 2 0 -12.804566072494382 1.8420302403512387 -6.15666198511426 1 0 1
123 0 1 0 -11.764117420472795 1.3645569449461306 -4.97669926840064 0 0 1
298 0 2 0 -11.309282528821504 -2.8272102880278034 -5.1774260268652075 0 0 1
501 0 2 0 -11.272147986614275 -0.17085899650646041 -5.190886723014469 1 -1 0
401 0 2 0 -12.55454150151229 1.5017058164491957 -3.6312185157779115 0 0 1
537 0 2 0 -13.298283026396222 0.2993227298313794 -8.123156771973006 0 -1 1
6 0 1 0 -12.323547843076538 1.559289460473428 -7.724617596274755 0 -1 0
644 0 2 0 -10.784597104254743 1.0864431472235871 -7.699511837348464 0 0 1
230 0 1 0 -10.365406684395778 -1.545370056273966 -4.957125654792794 0 0 0
557 0 2 0 -10.45455089212805 2.246930525323352 -4.882074071902713 1 1 1
432 0 2 0 -9.94344575784899 -1.593618336689774 -3.4222230252307684 0 0 1
245 0 2 0 -3.8575797845086903 -2.7200562046486354 -5.474841763227253 0 -1 1
337 0 2 0 -8.92844451168534 -1.753434980589189 -5.761127636741705 0 -1 0
295 0 2 0 -6.813249514262155 -1.7497102374472675 -7.455402085548304 0 0 0
496 0 2 0 -6.424478922214503 -2.115113544797828 -5.011684663684098 0 0 1
221 0 1 0 -5.619876677455768 1.1467919064007734 -5.859776213203619 0 0 1
8 0 1 0 -7.204466506761175 1.7695374271288404 -3.4372807917605144 0 -1 0
632 0 2 0 -6.881482867050348 0.6976111183647067 -6.803221725487901 0 1 0
376 0 2 0 -5.889611573615149 1.6423142379803135 -4.373377069686773 0 1 1
88 0 1 0 -7.4998481065034195 -2.444761003382128 -6.210490442398459 0 0 1
115 0 1 0 -6.566601375068336 -0.29454362226174524 -8.066440979676901 0 0 0
105 0 1 0 -4.914456224591394 -1.6303116446136494 -4.886895065303033 0 -1 0
254 0 2 0 -4.798545864841767 -0.24456812748040058 -5.612362772437429 0 1 1
612 0 2 0 -4.749168242533521 2.1397203747740274 -6.751191255305716 0 0 0
452 0 2 0 -7.855519832643171 0.23529042100605935 -3.374279797503771 0 1 0
718 0 2 0 -4.443488242271787 -1.50099633875268 -3.3016833033468043 1 0 1
74 0 1 0 -4.383190773774437 1.784422156367567 -8.229732699647935 0 -1 0
669 0 2 0 -2.697724938762189 0.3497314980788353 -2.989888592503404 0 0 0
711 0 2 0 -2.0974627085311646 -2.2250530533741903 -3.7789060866749757 -1 0 1
397 0 2 0 -0.8988571521087678 0.5031121263567933 -7.905235977286272 0 0 0
80 0 1 0 -1.4100067432692036 2.0418944595203037 -7.605985428809825 0 0 0
437 0 2 0 -1.7300114447068147 2.325314080463217 -6.085640830992245 0 0 0
409 0 2 0 -1.5628740115788098 -2.0574775736609308 -8.015987020170584 0 0 1
82 0 1 0 -2.962949008970167 -1.2022912623966553 -2.79122930867102 0 0 0
428 0 2 0 10.421021374565505 -1.0395806717587401 -4.872231061991058 0 1 0
150 0 1 0 10.763465120703948 -2.186321107168448 -5.931705497976006 0 -1 1
629 0 2 0 11.597538930389007 -1.9019238708346444 -7.2074834967988 0 0 1
236 0 1 0 13.287692544718766 1.76376687032114 -6.627427933934944 -1 0 0
509 0 2 0 13.115084535986725 1.6034049637728032 -4.991136783662509 -1 1 2
14 0 1 0 14.919476007952746 -1.8844733061743026 -5.577626802010156 0 -1 1
710 0 2 0 14.218210324783684 -1.781145689691912 -7.042249976164899 0 -1 0
560 0 2 0 14.851634769964143 1.8955988890724402 -7.044229060520592 0 -1 0
355 0 2 0 12.655097815504654 0.40883836030324083 -7.136842238593128 -1 0 0
92 0 1 0 12.940491652869284 -1.1052167277458302 -7.693809029603997 0 1 0
138 0 1 0 13.420757230555594 0.4036403188233013 -3.928142695291248 0 -1 -2
356 0 2 0 14.046646445897785 -0.8770247377769653 -4.637068452224939 0 -1 0
449 0 2 0 11.303386272397105 -2.6170266451322775 -3.0805650395278157 0 -1 1
192 0 1 0 10.829289746733501 -1.0190757553888394 -3.256543963778677 0 0 1
541 0 2 0 12.084064101450075 -0.06315146645175673 -3.100035364792146 0 0 0
72 0 1 0 -21.71455940927241 0.025429234409761747 -4.488001927672496 0 0 1
79 0 1 0 15.787210304422544 1.6217908509046044 -8.336225772993433 0 0 0
556 0 2 0 17.66552185083846 -2.5406143475388463 -3.409896670343535 0 0 -1
586 0 2 0 16.455739123375416 -1.5057073329961632 -5.500692169164108 -1 0 1
622 0 2 0 16.95084023467919 0.6136622804183833 -7.910837134510243 -1 0 3
340 0 2 0 21.602777949139735 0.5205966617242481 -5.941873493886118 -1 1 1
706 0 2 0 19.189299725809065 -2.286164770804252 -5.436735225795452 -1 0 1
151 0 1 0 17.84790346768812 -1.5930774630825946 -4.716152033480979 -1 0 1
463 0 2 0 20.5589313358942 0.4203999602187718 -3.542044271626719 0 1 2
116 0 1 0 19.073626165907967 1.1122385784909348 -3.7808189435769917 -1 0 0
363 0 2 0 18.230179114726653 -0.07801772419552044 -4.441505788031449 0 1 0
613 0 2 0 19.359971644412248 2.4773247699893854 -4.730528357002449 -1 -1 -1
419 0 2 0 17.770393426577293 -1.9190593815114765 -8.069228361243395 0 0 0
385 0 2 0 19.46191028732146 0.07060081957927977 8.42902231010627 0 0 -2
130 0 1 0 17.99701359177135 -0.4611206050074568 8.355529650164573 0 0 -1
588 0 2 0 21.20203762144137 1.8283282288259457 -8.307854455365002 -1 -1 0
657 0 2 0 -16.203087236328486 5.383040857823801 -7.35624635405155 0 0 1
445 0 2 0 -18.462336486464345 6.959548447440083 -7.063009158919303 1 -1 -1
96 0 1 0 -19.777340312555978 7.4745889251105595 -3.2105053861120236 1 0 0
320 0 2 0 -19.313507894727337 7.504233249753376 -4.707758176229997 1 -1 -1
140 0 1 0 -19.677318320549936 6.775005544773613 -6.074912686163877 0 0 0
422 0 2 0 -20.063342005745216 5.259490440810717 -5.816409627428101 0 1 0
208 0 1 0 -17.396439591489106 6.198848098624495 -8.033051051864845 1 0 1
465 0 2 0 -20.914222470580317 4.769720978588662 -8.169154573468592 1 -1 1
13 0 1 0 -21.093017399858955 4.296419227366432 -6.5818895330082485 1 0 1
531 0 2 0 -21.1379383343996 7.464020124906316 -6.59177270956789 1 0 0
338 0 2 0 -13.272197873527242 8.523446715573463 -4.478158365606298 0 -1 1
31 0 1 0 -14.7049406791192 4.755343940412885 -7.620553238799554 0 0 0
297 0 2 0 -14.812463799199211 3.2231402601181607 -7.168033845714237 0 0 1
251 0 2 0 -14.70390420837995 3.4061663282232146 -4.564453284988434 0 0 0
543 0 2 0 -13.513553227895343 5.338985278079084 -6.715216837690574 0 -1 1
199 0 1 0 -13.182903409235202 7.269410893173237 -3.5587032828222807 0 0 0
467 0 2 0 -14.218213123543862 6.054518789217504 -3.93984093789774 1 0 0
87 0 1 0 -14.048100653562209 4.489179136399585 -3.6389653951609997 1 -1 0
278 0 2 0 -12.501749800740756 4.270192581092148 -3.670232236635476 0 -1 1
661 0 2 0 -11.666248139754266 6.617827436633068 -3.630342812693569 1 0 0
631 0 2 0 -9.929307628943148 4.457145301298532 -3.580198256991994 0 -1 1
173 0 1 0 -11.275843295218772 5.153456750426102 -3.127137229792428 0 0 0
538 0 2 0 -9.549395741687098 7.056067783029974 -5.997091671994106 1 0 1
179 0 1 0 -9.435765352806978 3.4928801228755315 -4.793814182397731 0 -1 0
571 0 2 0 -8.052474133208252 2.8912357339881503 -4.291144712584757 1 -1 2
100 0 1 0 -9.298488627427801 5.756687066569999 -6.952250061996398 0 0 0
488 0 2 0 -9.450653513644918 4.352592914689655 -6.168767090017312 0 1 0
22 0 1 0 -8.931035122577054 7.8077239920467925 -4.702200804156825 1 1 1
472 0 2 0 -7.79491615389327 5.90969669405486 -7.536932377033174 0 0 -1
568 0 2 0 -8.594023067868202 6.901183445986135 -3.427134437594688 0 0 0
319 0 2 0 -4.222709081671404 7.056160087062727 -5.326109803785308 0 -2 1
404 0 2 0 -4.2268814956864915 5.900298816307595 -7.7346626925118525 0 0 0
596 0 2 0 -3.369768296936858 4.454503988345074 -5.615030908757049 0 -2 1
177 0 1 0 -3.514073219960448 5.921360124594905 -6.29119876127775 0 0 1
688 0 2 0 -2.734216048226635 2.911716168204647 -3.6623665247467434 0 0 0
196 0 1 0 1.2022096450380388 7.686898241886865 -6.506417828937265 0 0 1
410 0 2 0 1.3756583632473323 7.767040910321565 -8.112715035786774 0 0 1
222 0 1 0 -2.1928950988530502 3.50784114382504 -5.013222310395843 0 0 0
264 0 2 0 -0.822360671570717 7.2202629838119705 -4.199285612547684 0 -1 2
329 0 2 0 -1.9226142976950804 6.273739906199928 -6.423391489398387 0 0 1
170 0 1 0 -0.7264803138004794 5.996671963391316 -5.24690094386283 -1 0 0
469 0 2 0 -0.9587612399257495 4.476492850994518 -4.712355992800123 0 -1 0
684 0 2 0 0.6907934255797095 6.2132689781095625 -6.089910077758443 0 0 2
255 0 2 0 -0.3675983570025032 3.1783068509567407 -8.154615291302175 0 0 1
645 0 2 0 2.518257865531215 8.009908365088119 -5.661359543624958 -1 -2 0
321 0 2 0 12.532709583633647 3.042803670060213 -7.262127117896256 -1 0 0
364 0 2 0 10.988736238062927 7.51665807923748 -5.457319912300874 0 -1 0
188 0 1 0 12.480274639800477 7.022635536677974 -5.821184975669053 -1 0 1
654 0 2 0 12.555786393693403 5.5794967423229025 -6.5825406777654685 0 -1 0
451 0 2 0 13.448535593005303 6.999524449035224 -4.507669474548333 0 1 0
193 0 1 0 14.35029455722745 8.336951716215232 -7.777497918574039 0 -1 1
477 0 2 0 13.012001779692987 8.08034337000905 -6.94673656545393 0 0 0
625 0 2 0 15.437646536217443 7.298512855512378 -7.164871661202989 0 0 0
58 0 1 0 12.886801023463427 4.5873138784896135 -7.763959516055125 0 0 1
271 0 2 0 14.451406098873 4.723455054950369 -8.172071280928046 0 0 0
232 0 1 0 13.560693625999356 7.225073338450596 -2.8802376337498057 0 -1 -1
408 0 2 0 16.948097733751318 5.59004863263246 -8.288961668934565 0 0 1
83 0 1 0 16.939765039795063 6.998175859928555 -7.418438455736461 0 -2 1
351 0 2 0 17.584545805858816 8.350187358134125 -8.055919754472086 0 -1 0
461 0 2 0 17.610038589468992 6.918566383100719 -5.965014853143533 -1 0 2
395 0 2 0 20.82444795510473 4.395656794567916 -6.025933325428468 0 -2 1
195 0 1 0 21.000545077664945 8.192984521481243 -5.9720701963202245 -1 -1 0
102 0 1 0 19.86789644134975 4.03607915459936 -4.730247245413142 -1 -1 0
426 0 2 0 17.939628113164908 7.586277239216127 -3.4501002966421055 0 0 0
486 0 2 0 20.077213302121542 7.173867555967952 -5.027908356891653 0 0 -1
490 0 2 0 20.84163933184196 4.3256037929781055 -3.4696300321174594 0 -1 0
56 0 1 0 18.59966505875807 6.723537231613477 -4.721126790161417 0 0 0
650 0 2 0 18.649675173904164 5.095153157746571 -4.604899137290443 -1 0 0
434 0 2 0 -20.265684382412047 -8.303468283087156 -2.9360378008312056 0 0 0
7 0 1 0 -17.409327304565537 -7.129834148493582 -0.48385485144199425 1 1 -1
289 0 2 0 -17.66600946749862 -7.52567884383038 0.9984805485342463 1 0 -1
388 0 2 0 -17.19405412675377 -5.752657038035953 -1.2428949099267133 1 -1 0
283 0 2 0 -16.45901297807958 -3.658122039959439 0.6693060569517169 0 0 -1
484 0 2 0 -18.54184971219641 -4.9635943846022315 1.7455487775038065 0 -1 -1
35 0 1 0 -17.908574679663733 -3.4437750054654757 1.3624625749305306 0 1 0
108 0 1 0 -18.3009716708109 -8.152261576910236 2.3462729076802677 1 1 1
672 0 2 0 -21.164024407823337 -5.332283963319103 2.0056373068642905 1 0 1
201 0 1 0 -15.958720916087337 -5.538658005811233 -2.350049729029813 0 -1 0
362 0 2 0 -21.52827205866827 -3.6044072601490686 0.11072840378552762 0 0 0
312 0 2 0 -17.05559028342726 -8.327651174736344 -1.4459631773637858 0 0 1
182 0 1 0 -19.73672775376857 -5.550842561239267 2.7083983875926236 1 -1 1
585 0 2 0 -15.566744869289558 -3.978551468418062 -2.613655301544126 0 0 0
429 0 2 0 -18.971644499013635 -2.8883489441337424 0.25267747691036213 1 0 0
652 0 2 0 -17.743784860368244 -2.6908239579691973 2.7675665454320058 0 0 1
238 0 1 0 -14.961278509376308 -4.172879250848852 1.0349064518424793 1 0 0
471 0 2 0 -14.757941567053159 -5.757483094099948 0.6380619074419833 1 0 0
414 0 2 0 -14.672616575107632 -6.315076178532246 -1.7894956205629873 0 1 -1
683 0 2 0 -14.345681532664319 -8.29697069684071 -0.01890771559735782 1 0 0
45 0 1 0 -11.311490282716846 -5.424589162283917 0.19824723544869016 1 1 0
597 0 2 0 -12.341004622868615 -6.5400828162000995 -0.25430465069965535 1 0 0
155 0 1 0 -14.022849165540567 -6.769961195633034 -0.37902882840868557 0 1 0
304 0 2 0 -11.690922953799898 -4.845690514835006 1.703906222389401 0 0 0
508 0 2 0 -11.642421265350347 -4.29196069060452 -0.9069514797259881 1 -1 0
280 0 2 0 -13.872431663349879 -3.3503820555775636 0.17904643641762874 1 0 -2
578 0 2 0 -10.593148985111819 -8.468133659513342 -1.5479764247977528 0 -1 0
660 0 2 0 -10.138470844878116 -8.109809792317481 1.0422204295221231 0 0 0
411 0 2 0 -9.796416894506528 -5.777028989347629 0.34702777070282664 1 2 0
559 0 2 0 -14.86852278023093 -4.16909011722181 2.612638489961318 0 0 0
143 0 1 0 -12.572541487493123 -2.969633634607314 -0.7977141937476091 1 0 1
407 0 2 0 -6.5986248400258845 -7.485666406460493 -2.6103966031020356 0 0 1
536 0 2 0 -9.216098620778455 -6.458577099385334 -2.47444018336439 1 0 -1
162 0 1 0 -8.945804775675407 -7.04551026929767 0.8466540174012529 0 0 1
294 0 2 0 -8.215222020239432 -6.85319013486871 2.2909449007777454 0 -1 1
32 0 1 0 -7.58553413569282 -6.140710310532104 -2.5959447277143024 0 1 1
229 0 1 0 -5.460102986669366 8.61634329380393 -2.284544848849473 0 0 0
634 0 2 0 -7.120847154905162 -4.918842643552778 -1.61548929963973 0 -1 0
584 0 2 0 -7.806588210112535 -7.599690174403036 -0.1123348518227214 0 0 -1
345 0 2 0 -5.195974469418427 -4.43430384366278 1.247776619228306 0 0 0
290 0 2 0 -7.41392688920466 -3.5570266291640733 2.3390160442060015 0 1 1
213 0 1 0 -7.276877931882044 -3.3546842422635805 -1.229261991182919 0 0 1
15 0 1 0 -5.965606805894305 -4.109146782304876 2.6678994736214108 0 0 0
383 0 2 0 -3.9899681206657682 -5.280644962568024 -1.1839938674412522 0 2 1
119 0 1 0 -3.9149152475585716 -4.8137789393990875 0.3945595559982351 0 0 -1
250 0 2 0 -8.30237325502416 -3.103950785458495 4.270071105239026e-05 0 0 1
479 0 2 0 -4.88337395755606 8.489029318961986 -0.7590886839662021 0 -1 -1
272 0 2 0 -3.8280348068951646 -7.549478755275937 3.0365168997363057 1 1 0
218 0 1 0 -2.914205762731438 -5.27611413378854 -2.3423786006703287 0 1 0
219 0 1 0 -2.715949947038297 -7.3213990872680395 1.9007910672207533 0 0 1
697 0 2 0 -2.9718133469969565 -5.94372335690033 1.1682652980481887 0 2 0
417 0 2 0 -2.96074044041632 -8.570817397299933 0.8960147072797628 1 0 1
459 0 2 0 -1.4697409002822965 -5.598984762283346 -1.9272040744946803 0 1 0
210 0 1 0 -0.24710138437835028 -6.736076636107568 -2.108185530901155 0 1 1
686 0 2 0 -0.44218086919397237 -7.819235983288181 -0.9900706194021387 -1 0 0
457 0 2 0 1.1471521326909908 -5.953776679822279 -1.8204671040144955 0 1 1
259 0 2 0 1.2396684941441904 -7.280932142680843 2.1336786173719915 -1 0 0
403 0 2 0 -1.254196471149232 -7.377147688339107 2.5371790283055518 0 1 0
317 0 2 0 -2.990329856396823 -3.487161508537854 0.390417295249339 0 0 0
163 0 1 0 1.930171134166219 -5.256622620688021 -0.7013458722769625 0 0 -1
577 0 2 0 1.8492647236543007 -3.681731026793111 -0.6397055676492052 0 0 0
30 0 1 0 2.7517952263561405 -6.78306090533628 1.8409450373414167 0 0 0
717 0 2 0 2.724531194971025 -6.004026493554624 0.4240214353261962 0 0 -1
617 0 2 0 3.1432652928640437 -5.704239904317894 3.0106130192553824 0 -1 0
361 0 2 0 7.987819954742356 -5.6073592002229 -1.1593545298554249 0 0 1
350 0 2 0 3.8495773729450136 -8.01599019888755 1.8136618266222673 0 0 0
211 0 1 0 9.38270671868948 -4.803139350699508 -1.2292773260241088 0 1 1
676 0 2 0 9.053197537967357 -3.2472909579386577 -1.0733413127248896 0 0 0
616 0 2 0 5.05020166448908 -4.024082609480504 3.051953510050307 0 0 -1
636 0 2 0 10.443097825775538 -5.453948067207485 -0.19900673809602765 0 0 -1
27 0 1 0 11.746744893870996 -6.364753551937104 -0.2772204510538909 0 0 1
510 0 2 0 11.85807259771471 -6.811995097659575 -1.8245143111879774 -1 0 -1
505 0 2 0 12.957232750688128 -5.474180935397871 0.4041430111367088 -1 -1 -1
111 0 1 0 14.222189968386694 -4.81022958602031 1.1153944314529802 0 1 0
555 0 2 0 15.581385705864456 -4.97508327368505 0.24441777554665833 0 -1 1
475 0 2 0 14.667626867053905 -3.679960248021521 -2.2235463669944737 0 0 0
527 0 2 0 14.092924265913126 -3.199857589810887 1.2151690770030967 0 0 0
178 0 1 0 15.355735991497319 -8.277201443354487 -1.1736295341076355 -1 0 0
391 0 2 0 14.476944700169042 -8.096694724232838 0.18950721436608298 0 1 1
369 0 2 0 11.800204234617595 -7.734067036258111 0.5214973399951592 0 1 0
91 0 1 0 13.060966966800294 -8.470573605855604 1.1525476902583076 0 2 0
523 0 2 0 12.898652965555563 -8.04012285054565 2.734882686676899 0 0 -1
689 0 2 0 14.583349248496667 -5.435405297753778 2.6411217966275515 -1 -1 -1
470 0 2 0 19.709764016583335 -4.2310860652380144 -2.989707607973642 0 0 1
623 0 2 0 16.15178546326691 -6.917618586568332 -1.4017119546394676 0 0 0
62 0 1 0 16.78192378521433 -5.660192022797049 -0.609268274253842 0 1 1
495 0 2 0 17.54174012487522 -4.598481891749189 -1.660943826206526 0 0 0
701 0 2 0 17.76743810439315 -6.160687764518178 0.45469852396663235 0 -1 0
212 0 1 0 21.238210449249223 -4.112011487816169 1.522617285620468 -1 0 1
610 0 2 0 19.775811036324917 -4.6787484495941305 1.3436146994726137 0 1 -1
109 0 1 0 19.26913937393394 -6.1530060490068035 0.9343399023459202 -1 1 0
707 0 2 0 20.189107312685664 -6.626086961327194 -0.38377858371041285 -1 0 0
325 0 2 0 19.403121727128735 -7.172840859395249 2.108938762281765 0 1 -1
702 0 2 0 20.702911280531197 -7.92771519044412 -2.503592909588212 0 2 -1
240 0 1 0 20.23474710243741 -8.053630783405008 -1.021635985081991 0 2 1
263 0 2 0 21.200898268718717 -2.955590607517925 2.6074757228016647 -1 0 0
310 0 2 0 -15.647103305938984 0.6977288553726666 -2.8997665170382696 0 0 0
68 0 1 0 -20.451115186115484 -2.414367793605332 -0.14579566919145392 1 1 0
547 0 2 0 -15.92364871800468 -1.5179298640743886 -1.65533365814502 0 0 -1
59 0 1 0 -16.290410758133795 0.05474760120410593 -1.5119442943421406 1 0 0
125 0 1 0 -18.726090235577615 1.1964068638833396 -0.44364978571004166 1 0 1
344 0 2 0 -17.83864074167613 0.37992836613550374 -1.4945595921551291 0 0 0
181 0 1 0 -20.13460910790948 -0.146645320079271 1.7960977664797095 1 -1 0
284 0 2 0 -18.950913424885997 0.32791356095648894 0.8493554300510642 0 -2 1
507 0 2 0 -20.21523968832352 1.4900191037498516 -0.9816386689829706 0 -1 0
253 0 2 0 -17.987561266784653 2.5937394570782093 -0.05503570577883643 1 0 -1
243 0 2 0 -20.86510307853855 -1.265215057938181 0.8901674359853935 0 1 -1
462 0 2 0 -20.4027450338266 -1.9139194115393252 -1.6519164685865153 0 1 -1
380 0 2 0 -15.604598995956103 0.5288078089905177 -0.1829336482029138 0 0 -1
311 0 2 0 -21.372725972231287 0.8246748914130198 2.2462988806140913 1 1 1
659 0 2 0 -19.098987992097765 2.58976281966552 2.3361234566321922 1 0 0
94 0 1 0 -21.364477685574943 2.6483350593868007 -0.7868612012090486 1 -2 0
42 0 1 0 -14.955184758802982 -2.5637784113175037 -2.362731388366556 0 0 1
367 0 2 0 -13.398397485079895 -2.501253134543429 -2.0673584321855136 0 0 2
44 0 1 0 -14.161864885257199 1.1183907125488233 0.34051389016375744 1 1 0
572 0 2 0 -13.51438920805349 1.7071295480313786 -1.0533676210898024 0 0 -1
544 0 2 0 -13.39973807794439 -0.10961379500813706 1.0720800793806706 0 -1 -1
639 0 2 0 -11.387623267053375 -1.9161268215701117 -0.28567494135810456 0 0 2
141 0 1 0 -12.277593195438127 1.5509720834602057 -2.0575760550592825 0 0 1
413 0 2 0 -10.570024541149117 0.25271946938164724 0.6943419134170554 0 -1 0
418 0 2 0 -11.695056760856081 0.07166649000363456 -1.7643885576664946 0 0 -1
12 0 1 0 -10.665710824150253 -0.525955497290818 -0.6803450786083616 0 0 0
375 0 2 0 -14.21784576861795 2.3270420011578423 1.3747725083821756 1 0 0
674 0 2 0 -11.238798047598685 2.680372532201801 -1.5367124433127293 0 0 1
18 0 1 0 -10.19467776562117 -0.2770190026003352 2.19268593255317 0 0 0
34 0 1 0 -13.130549436565692 -0.6195381402244031 2.6171150302852357 0 0 0
551 0 2 0 -9.277091848175417 0.8865420692942454 2.8690536777586235 0 0 -1
453 0 2 0 -9.432054883274754 -1.7054946112076212 1.9532869798974328 0 0 1
308 0 2 0 -9.188342110676496 -0.5226858919929871 -1.2462054767253763 0 1 0
226 0 1 0 -8.64525092555681 -1.0127873948826753 -2.685399128676334 0 -1 0
198 0 1 0 -8.113984172714527 -2.405909447998029 1.4098657259895617 0 0 -1
530 0 2 0 -7.7542232719533 -2.371148064988269 -2.3603622241589113 0 0 0
680 0 2 0 -5.857802267132513 -2.5882186624720296 -0.7752181772406344 0 0 0
700 0 2 0 -5.769832290974451 0.016492986085546946 -0.9129682539327613 -1 0 1
114 0 1 0 -5.694187711833681 -1.2118459103351533 0.08609260850386491 0 1 0
384 0 2 0 -6.944150142526949 -1.2668311081265315 1.1892673570930903 1 1 0
287 0 2 0 -6.792356503334506 2.277268428853006 -1.953847356089458 0 -1 1
24 0 1 0 -5.6112612383633405 1.658980233779877 -0.9595724528202254 0 0 1
382 0 2 0 -4.161074811756034 2.07991899279285 -1.5757026773833207 0 0 -1
611 0 2 0 -5.63847964812863 2.268191573500717 0.5154393741562657 -1 0 -1
637 0 2 0 -4.253288836301415 -1.2051471852597473 0.7784749451143576 0 1 -1
630 0 2 0 -3.6599368920424418 1.2935553328958331 2.1617705934434372 1 0 1
129 0 1 0 -4.4860408937385685 2.5799749332155564 1.655192232560129 0 -1 0
261 0 2 0 0.5335313687411762 -2.85407783400112 1.3754410829841728 0 0 0
159 0 1 0 1.9080686188392235 -2.6242062767979784 0.5929682540004713 0 -1 1
635 0 2 0 0.8848381102864202 1.765448936889996 -2.3276895799988777 1 2 0
175 0 1 0 -2.891110761736744 -1.9141839427737182 0.25543723259590223 0 -1 0
220 0 1 0 -2.7259160892990337 1.8589065699211549 -2.396222792734167 0 0 -1
487 0 2 0 -2.6688202201331173 -1.6414338357517275 -1.3322167503491311 0 0 0
279 0 2 0 -1.7248010770099071 -1.416606268001261 1.1926391585972453 0 -1 0
276 0 2 0 -1.5105121123045535 2.204787992287356 -1.4295134159397733 0 0 0
145 0 1 0 -0.4986977197740856 -1.7820610172859617 2.2132624907915126 0 0 0
169 0 1 0 0.09399802542740332 2.172046991966015 -0.9992067605614698 0 -1 -1
655 0 2 0 0.2686390416829134 0.9948735988580228 0.1501840427384753 0 -1 1
233 0 1 0 1.2240264300704737 0.31531541185126244 1.2368840749799688 0 0 0
703 0 2 0 0.32868255338044605 -0.4519534972134718 2.3613258083968365 0 0 0
447 0 2 0 2.098386141378448 1.4973428201469918 1.909120491211727 0 0 1
352 0 2 0 2.0084099865812526 -0.9004952205125738 0.508082795604075 0 0 0
619 0 2 0 3.265897971158946 -3.0612934153122664 1.396003106565395 0 1 0
165 0 1 0 4.461032898665373 -2.715876398941769 2.35234672169984 0 0 -1
621 0 2 0 7.376026576213793 -2.1899142710927384 -2.7143363034709465 0 1 0
620 0 2 0 7.623132489675502 -1.2215117391167327 -0.25028016364399086 0 0 2
120 0 1 0 7.052584899544339 -1.6273776466720085 1.1809572208269685 0 0 0
693 0 2 0 5.547238679737504 -1.8175162884379912 1.5372318408988814 0 -1 0
137 0 1 0 8.429419192947378 -1.8526185913700717 -1.5259884776845007 0 0 0
604 0 2 0 7.979297583326812 -1.7471111975735658 2.4475058455912198 0 0 -1
576 0 2 0 14.391225817277778 0.9289084839470938 -2.7168899255250265 -1 0 1
593 0 2 0 9.594810898297833 -0.8961496450341357 -2.189019280381256 0 0 0
216 0 1 0 14.334792228722712 1.715435096177936 -1.3706158000868678 0 0 0
54 0 1 0 14.885952878935178 -2.154504262818831 2.144100448362906 0 -1 0
412 0 2 0 14.77323147476708 1.27158047494029 0.04776657269356832 0 -1 0
716 0 2 0 16.297074441696516 -1.5961509616178624 1.7459658933265114 0 1 0
139 0 1 0 19.119005209820756 2.1669530933510224 -1.0145085051445593 0 0 0
291 0 2 0 18.51881412865361 1.5250737536600543 0.34298757244243916 0 0 -1
599 0 2 0 18.429802398159623 1.581655392584798 -2.4015204849534983 0 0 -1